##############################################################################
#                                                                            #
# Te-W             # WTe2                                          #  457398 #
#                                                                            #
##############################################################################
#                                                                            #
#                           Pearson's Crystal Data                           #
#      Crystal Structure Database for Inorganic Compounds (on DVD)           #
#                              Release 2024/25                               #
#      Editors: Pierre Villars, Karin Cenzual, and Vitaliy Dubenskyy         #
#                                                                            #
#   Copyright (c) ASM International & Material Phases Data System (MPDS),    #
# Switzerland & National Institute for Materials Science (NIMS), Japan, 2024 #
#                   All rights reserved. Version 2024.07                     #
#                                                                            #
#   This copy of Pearson's Crystal Data is licensed to:                      #
#   Hunter College - City University of New York                             #
#                                                                            #
##############################################################################

data_457398
_audit_creation_date                     2024-09-20
_audit_creation_method
;
Pearson's Crystal Data browser
;
#_database_code_PCD                      457398
_database_code_PDF                       04-003-6079

# Entry summary

_chemical_formula_structural             'W Te~2~'
_chemical_formula_sum                    'Te2 W'
_chemical_name_mineral                   ?
_chemical_compound_source                ?
_chemical_name_structure_type            WTe~2~,oP12,31
_chemical_formula_weight                 439.0

# Bibliographic data

_publ_section_title
;
Chemical stability of tellurides of subgroup VIa transition metals in various corrosive media
;
_journal_coden_ASTM                      SPMCAV
_journal_name_full                       'Sov. Powder Metall. Met. Ceram.'
_journal_year                            1972
_journal_volume                          11
_journal_page_first                      727
_journal_page_last                       729
_journal_language                        English
loop_
 _publ_author_name
 _publ_author_address
''
;
;

# Standardized crystallographic data

_cell_length_a                           3.489
_cell_length_b                           6.285
_cell_length_c                           14.08
_cell_angle_alpha                        90
_cell_angle_beta                         90
_cell_angle_gamma                        90
_cell_volume                             308.75
_cell_formula_units_Z                    4
_space_group_IT_number                   31
_space_group_name_H-M_alt                'P m n 21'
loop_
 _space_group_symop_id
 _space_group_symop_operation_xyz
 1 'x, y, z'
 2 '1/2-x, -y, 1/2+z'
 3 '-x, y, z'
 4 '1/2+x, -y, 1/2+z'

# Atomic positions taken from type-defining entry

loop_
 _atom_type_symbol
 W
 Te
loop_
 _atom_site_label
 _atom_site_type_symbol
 _atom_site_symmetry_multiplicity
 _atom_site_Wyckoff_symbol
 _atom_site_fract_x
 _atom_site_fract_y
 _atom_site_fract_z
 _atom_site_occupancy
 W1 W 2 a 0 0.03980 0.09590 1
 Te1 Te 2 a 0 0.20722 0.70725 1
 Te2 Te 2 a 0 0.29845 0.25129 1
 W2 W 2 a 0 0.60062 0.61112 1
 Te3 Te 2 a 0 0.64631 0.00000 1
 Te4 Te 2 a 0 0.85761 0.45587 1


_exptl_crystal_colour                    ?
_exptl_crystal_density_meas              ?
_exptl_crystal_density_diffrn            9.45
_cell_measurement_temperature            ?
_cell_measurement_radiation              X-rays
_cell_measurement_reflns_used            ?
_diffrn_ambient_temperature              ?
_diffrn_measurement_device               film
_diffrn_measurement_device_type          ?
_diffrn_radiation_type                   ?
_diffrn_reflns_number                    ?
_exptl_absorpt_coefficient_mu            ?
_exptl_absorpt_correction_type           ?
_computing_structure_solution            ?
_refine_ls_number_parameters             ?
_refine_ls_number_reflns                 ?
_refine_ls_R_factor_gt                   ?
_refine_ls_wR_factor_gt                  ?

# End of data set 457398

